# vtk DataFile Version 5.1
vtk output
ASCII
DATASET UNSTRUCTURED_GRID
POINTS 281 float
-0.092328 0 0.149194 -0.0909081 0 0.146895 0.0672521 0 -0.12666 
0.0488857 0 -0.125912 0.0488148 0 -0.125909 0.0487898 0 -0.125908 
0.0396191 0 -0.125154 0.0395952 0 -0.125153 0.0350266 0 -0.124712 
0.0304615 0 -0.124237 0.0303939 0 -0.124232 -0.006108 0 -0.119136 
-0.00603741 0 -0.119148 -0.00156312 0 -0.119928 -0.00149175 1.69407e-21 -0.119939 
0.00299057 1.69407e-21 -0.120667 0.00302669 0 -0.120672 0.00527036 0 -0.121019 
0.00530702 0 -0.121024 0.00755194 0 -0.121359 0.00758924 0 -0.121364 
0.00983513 0 -0.121688 0.00987317 0 -0.121693 0.016693 0 -0.122615 
0.0167136 0 -0.122618 0.0166541 -1.69407e-21 -0.122611 0.0144058 -1.69407e-21 -0.122316 
0.0121198 0 -0.122007 0.0121586 -1.69407e-21 -0.122012 0.0189812 0 -0.122906 
0.0190022 0 -0.122908 0.0212706 0 -0.123188 0.0213143 0 -0.123193 
0.0258522 0 -0.123728 -0.00941432 0 -0.118514 -0.034993 0 -0.111474 
-0.0349541 0 -0.111488 -0.0389439 0 -0.109899 -0.0389638 0 -0.109891 
-0.0611137 0 -0.0971038 -0.0611663 0 -0.0970598 -0.0675173 0 -0.0914546 
-0.0674729 0 -0.0914961 -0.0467108 0 -0.106277 -0.0466892 0 -0.106288 
-0.0523438 0 -0.103133 -0.0523935 0 -0.103104 -0.0604466 0 -0.0976221 
-0.0604262 0 -0.0976373 -0.0541292 0 -0.102031 -0.0541485 0 -0.102018 
-0.0421982 0 -0.108471 -0.0422189 0 -0.108462 -0.0226453 0 -0.115452 
-0.0227932 0 -0.115416 -0.0296367 0 -0.11336 -0.0297124 0 -0.113337 
-0.00956396 0 -0.118484 -0.030969 0 -0.112918 -0.006108 0 -0.0200156 
-0.00610063 0 -0.0200146 -0.0527506 0 -0.0269724 -0.0527553 0 -0.0269734 
-0.0510559 0 -0.0266418 -0.0510464 0 -0.02664 -0.0112624 0 -0.0208299 
-0.0112954 0 -0.0208358 -0.0794898 0 -0.073905 -0.0794868 0 -0.0739122 
-0.0805248 0 -0.0710291 -0.0805223 0 -0.0710366 -0.079148 0 -0.0747321 
-0.0782545 0 -0.0766999 -0.0782509 0 -0.0767071 -0.0752507 0 -0.0820173 
-0.0765526 0 -0.0799009 -0.0765481 0 -0.0799084 -0.0729846 0 -0.0852337 
-0.0729724 0 -0.08525 -0.0716335 0 -0.0869403 -0.0716161 0 -0.0869612 
-0.0685958 0 -0.0903539 -0.0685869 0 -0.090364 -0.0685698 0 -0.0903822 
-0.070569 0 -0.0333577 -0.0705584 0 -0.0333515 -0.0676876 0 -0.031749 
-0.0603705 0 -0.0288676 -0.0603752 0 -0.0288691 -0.0578565 0 -0.0281506 
-0.0578519 0 -0.0281494 -0.0628703 0 -0.0297011 -0.0628598 0 -0.0296967 
-0.0605981 0 -0.0289382 -0.0606076 0 -0.0289413 -0.0664765 0 -0.0311692 
-0.0664658 0 -0.0311639 -0.0761182 0 -0.0378798 -0.0761099 0 -0.0378698 
-0.0742306 0 -0.0360514 -0.0733396 0 -0.0353096 -0.0733263 0 -0.0352985 
-0.0721694 0 -0.0344263 -0.072181 0 -0.0344344 -0.075677 0 -0.037416 
-0.075691 0 -0.0374304 -0.0798356 0 -0.0432115 -0.0798461 0 -0.0432327 
-0.0785297 0 -0.0409466 -0.0785382 0 -0.0409595 -0.0792067 0 -0.0420427 
-0.0791974 0 -0.0420265 -0.0808502 0 -0.0456145 -0.0808697 0 -0.0456704 
-0.0803944 0 -0.0444283 -0.0803817 0 -0.0443977 -0.0803671 0 -0.0443633 
-0.0810511 0 -0.0462223 -0.0810859 0 -0.0463336 -0.081138 0 -0.0465069 
-0.0811453 -1.69407e-21 -0.0465327 -0.0812123 0 -0.0467607 -0.0812407 0 -0.0468611 
-0.0813364 0 -0.0472107 -0.0813707 0 -0.0473408 -0.0813878 0 -0.0474053 
-0.0814214 0 -0.0475368 -0.0814383 0 -0.047605 -0.081608 0 -0.0483272 
-0.0816175 0 -0.0483666 -0.0818987 0 -0.0498442 -0.0819026 0 -0.049865 
-0.0820713 0 -0.0510338 -0.0820732 0 -0.0510478 -0.0822615 0 -0.0528859 
-0.0822626 0 -0.0528976 -0.0823625 0 -0.0544127 -0.0823631 0 -0.0544227 
-0.0824218 0 -0.0559404 -0.0824217 0 -0.0559453 -0.0824397 0 -0.0574684 
-0.0824397 0 -0.0574731 -0.0824367 0 -0.0579786 -0.0824171 0 -0.0589963 
-0.082417 0 -0.0590007 -0.0823539 0 -0.0605233 -0.0823536 0 -0.0605276 
-0.0822497 0 -0.0620485 -0.0822493 0 -0.0620527 -0.0821007 0 -0.0635698 
-0.0821002 0 -0.0635739 -0.0819565 0 -0.0647075 -0.081955 0 -0.0647156 
-0.0809827 0 -0.0694803 -0.0813331 0 -0.0680922 -0.081335 0 -0.0680844 
-0.037205 0 -0.0244877 -0.0371857 0 -0.024485 -0.0371579 0 -0.0244813 
-0.0268579 0 -0.0230365 -0.0268214 0 -0.0230317 -0.016445 0 -0.0215632 
-0.016483 0 -0.0215689 -0.0776426 0 -0.0396926 -0.0776507 0 -0.0397036 
-0.0696307 0 -0.0892482 -0.0811869 0 -0.0466728 -0.0812712 0 -0.0469702 
-0.0812773 0 -0.046992 -0.0812917 0 -0.0470441 -0.00513467 0 -0.0199628 
0.0016677 0 -0.0188105 0.00165552 0 -0.0188133 -0.000260746 0 -0.0192027 
-0.000272649 0 -0.0192044 0.000705887 0 -0.0190191 0.000700243 0 -0.0190203 
-0.00220467 0 -0.0195277 -0.00221475 0 -0.0195293 -0.00512695 0 -0.0199628 
-0.00415259 0 -0.0198207 -0.00415729 0 -0.0198215 0.00668563 0 -0.0143175 
0.00668148 0 -0.0143225 0.00673343 0 -0.0137771 0.00655944 0 -0.0148858 
0.00655258 0 -0.0148948 0.00649735 0 -0.0150762 0.00648497 0 -0.0150927 
0.00631352 0 -0.0155412 0.00619826 0 -0.0157724 0.00597762 0 -0.0161625 
0.00609039 0 -0.0159779 0.00575419 0 -0.0164985 0.00582614 0 -0.0163976 
0.00582176 0 -0.0164023 0.00567577 0 -0.0166018 0.00560674 0 -0.0166907 
0.00552076 0 -0.0167939 0.00544384 0 -0.0168835 0.00500624 -1.69407e-21 -0.017319 
0.00491492 -1.69407e-21 -0.0173973 0.00481567 0 -0.0174768 0.00470584 0 -0.017561 
0.00470215 0 -0.0175631 0.00420938 0 -0.017884 0.00441946 0 -0.0177574 
0.00441584 0 -0.0177592 0.00417964 0 -0.0179003 0.00354754 0 -0.0182123 
0.0037727 0 -0.0181109 0.00376934 0 -0.0181123 0.00351141 0 -0.0182274 
0.00260041 0 -0.0185569 0.00259426 0 -0.0185588 0.00308718 0 -0.0183939 
0.0030809 0 -0.018396 0.00213861 0 -0.0186907 0.00214472 0 -0.018689 
0.00674826 0 -0.0136254 0.00622394 0 -0.0114592 -0.00672115 0 0.0106661 
-0.00662226 0 0.0105338 -0.00634209 0 0.0101602 0.00322805 0 -0.00503315 
0.00355956 0 -0.00541853 0.00625734 0 -0.0113358 0.0053056 0 -0.0086357 
0.0053123 0 -0.00889022 -0.0397985 0 0.0641973 -0.0398393 0 0.0642536 
-0.0466249 0 0.0752382 -0.0466338 0 0.0752486 -0.0363944 0 0.0586862 
-0.0363853 0 0.0586769 -0.032982 0 0.0531674 -0.0329709 0 0.0531566 
-0.0339478 0 0.0547309 -0.0295682 0 0.0476495 -0.0295545 0 0.0476367 
-0.0261536 0 0.0421324 -0.0261364 0 0.0421169 -0.02274 0 0.0366158 
-0.0227184 0 0.0365965 -0.0193004 0 0.0310757 -0.0193268 0 0.0311 
-0.0637689 0 0.102971 -0.0638222 0 0.103056 -0.0694807 0 0.112216 
-0.0695056 0 0.112255 -0.0580864 0 0.0937728 -0.0580577 0 0.0937265 
-0.0566448 0 0.0914393 -0.0566292 0 0.0914154 -0.0552173 0 0.0891299 
-0.0552006 0 0.0891044 -0.0537899 0 0.086821 -0.0537714 0 0.0867934 
-0.0523531 0 0.0844976 -0.0523426 0 0.0844824 -0.050925 0 0.0821877 
-0.0509132 0 0.0821713 -0.0494911 0 0.0798692 -0.0494843 -1.69407e-21 0.0798602 
-0.0480626 -1.69407e-21 0.0775588 -0.048055 0 0.0775492 -0.0908998 0 0.146883 
-0.0894805 0 0.144585 -0.0894719 0 0.144572 -0.0866339 0 0.139978 
-0.0866165 0 0.139949 -0.0837784 0 0.135355 -0.083761 0 0.135327 
-0.0809232 0 0.130733 -0.080905 0 0.130705 -0.0780688 0 0.126114 
-0.0780489 0 0.126083 -0.0752145 0 0.121495 -0.0751929 0 0.121461 
-0.07236 0 0.116875 -0.0723369 0 0.116838 
METADATA
INFORMATION 2
NAME L2_NORM_RANGE LOCATION vtkDataArray
DATA 2 0.00597937 0.175451 
NAME L2_NORM_FINITE_RANGE LOCATION vtkDataArray
DATA 2 0.00597937 0.175451 

CELLS 157 312
OFFSETS vtktypeint64
0 2 4 6 8 10 12 14 16 
18 20 22 24 26 28 30 32 34 
36 38 40 42 44 46 48 50 52 
54 56 58 60 62 64 66 68 70 
72 74 76 78 80 82 84 86 88 
90 92 94 96 98 100 102 104 106 
108 110 112 114 116 118 120 122 124 
126 128 130 132 134 136 138 140 142 
144 146 148 150 152 154 156 158 160 
162 164 166 168 170 172 174 176 178 
180 182 184 186 188 190 192 194 196 
198 200 202 204 206 208 210 212 214 
216 218 220 222 224 226 228 230 232 
234 236 238 240 242 244 246 248 250 
252 254 256 258 260 262 264 266 268 
270 272 274 276 278 280 282 284 286 
288 290 292 294 296 298 300 302 304 
306 308 310 312 
CONNECTIVITY vtktypeint64
4 5 2 3 15 14 17 16 19 
18 21 20 27 22 23 25 26 28 
33 32 33 10 31 30 29 24 26 
25 13 12 8 9 8 7 6 5 
59 65 71 68 75 73 74 77 165 
80 165 81 41 83 82 83 84 85 
89 87 90 62 96 91 92 94 88 
93 163 97 103 101 84 102 99 104 
110 106 164 108 109 111 114 112 113 
112 107 116 113 117 118 119 166 120 
121 122 169 168 126 125 142 141 155 
152 153 154 64 156 157 156 66 161 
162 160 159 158 69 153 151 150 149 
148 147 146 145 144 143 142 140 139 
138 137 136 135 134 133 132 131 130 
129 128 127 124 123 167 122 114 115 
98 105 99 100 86 95 86 85 79 
78 74 76 72 71 67 70 61 63 
49 46 50 48 39 47 52 44 38 
51 57 53 58 56 58 36 11 34 
54 55 43 45 42 40 35 37 175 
172 180 178 185 183 187 186 189 188 
192 190 194 191 206 204 210 208 215 
212 171 217 60 170 218 214 213 216 
209 211 205 207 203 202 201 200 199 
198 197 196 193 195 182 184 179 181 
177 174 173 176 244 221 222 223 224 
223 227 225 224 225 227 228 226 220 
229 233 237 235 234 237 236 238 239 
240 241 242 243 245 231 230 219 220 
226 228 222 221 246 250 251 252 253 
254 257 258 261 262 263 264 265 232 
0 1 266 267 268 269 270 271 272 
273 274 275 276 277 278 279 280 249 
259 260 255 256 248 247 
CELL_TYPES 156
3
3
3
3
3
3
3
3
3
3
3
3
3
3
3
3
3
3
3
3
3
3
3
3
3
3
3
3
3
3
3
3
3
3
3
3
3
3
3
3
3
3
3
3
3
3
3
3
3
3
3
3
3
3
3
3
3
3
3
3
3
3
3
3
3
3
3
3
3
3
3
3
3
3
3
3
3
3
3
3
3
3
3
3
3
3
3
3
3
3
3
3
3
3
3
3
3
3
3
3
3
3
3
3
3
3
3
3
3
3
3
3
3
3
3
3
3
3
3
3
3
3
3
3
3
3
3
3
3
3
3
3
3
3
3
3
3
3
3
3
3
3
3
3
3
3
3
3
3
3
3
3
3
3
3
3

CELL_DATA 156
SCALARS STLSolidLabeling float
LOOKUP_TABLE default
1 1 1 1 1 1 1 1 1 
1 1 1 1 1 1 1 1 1 
1 1 1 1 1 1 1 1 1 
1 1 1 1 1 1 1 1 1 
1 1 1 1 1 1 1 1 1 
1 1 1 1 1 1 1 1 1 
1 1 1 1 1 1 1 1 1 
1 1 1 1 1 1 1 1 1 
1 1 1 1 1 1 1 1 1 
1 1 1 1 1 1 1 1 1 
1 1 1 1 1 1 1 1 1 
1 1 1 1 1 1 1 1 1 
1 1 1 1 1 1 1 1 1 
1 1 1 1 1 1 1 1 1 
1 1 1 1 1 1 1 1 1 
1 1 1 1 1 1 1 1 1 
1 1 1 1 1 1 1 1 1 
1 1 1 
FIELD FieldData 1
vtkOriginalCellIds 1 156 vtkIdType
872 876 879 880 881 882 883 884 885 
889 891 892 893 895 901 902 903 904 
906 909 910 912 914 916 917 918 919 
920 921 923 924 925 928 930 931 933 
934 935 936 937 938 940 941 943 946 
948 950 954 963 968 970 974 975 976 
977 978 979 981 982 983 984 985 986 
987 988 989 990 991 992 994 997 1000 
1005 1007 1009 1013 1015 1016 1018 1019 1021 
1025 1026 1027 1029 1031 1033 1035 1037 1039 
1041 1047 1052 1053 1056 1060 1065 1066 1068 
1071 1073 1087 1090 1093 1097 1100 1102 1103 
1106 1109 1111 1113 1119 1121 1123 1129 1130 
1132 1133 1135 1136 1137 1138 1139 1140 1141 
1145 1146 1147 1148 1149 1150 1151 1158 1159 
1160 1161 1164 1166 1167 1170 1173 1174 1175 
1176 1177 1178 1179 1180 1181 1182 1183 1184 
1197 1199 1202 
POINT_DATA 281
FIELD FieldData 1
vtkOriginalPointIds 1 281 vtkIdType
532 533 912 930 931 932 933 934 935 
937 938 939 940 941 942 943 944 945 
946 947 948 949 950 951 952 953 954 
955 956 957 958 959 960 961 962 963 
964 966 967 968 969 970 971 978 979 
980 981 982 983 984 985 986 987 988 
990 991 992 993 994 995 996 997 998 
999 1000 1001 1002 1003 1004 1005 1006 1007 
1008 1009 1010 1011 1012 1013 1014 1015 1016 
1017 1018 1019 1020 1021 1022 1023 1024 1025 
1026 1027 1028 1029 1030 1031 1032 1033 1034 
1035 1036 1037 1038 1039 1040 1041 1042 1043 
1044 1045 1046 1047 1048 1049 1050 1051 1052 
1053 1054 1056 1057 1059 1060 1063 1064 1065 
1066 1068 1069 1070 1071 1072 1073 1074 1075 
1076 1077 1078 1079 1080 1081 1082 1083 1084 
1085 1086 1087 1088 1089 1090 1091 1092 1093 
1094 1095 1096 1097 1098 1099 1100 1101 1102 
1103 1104 1105 1106 1107 1109 1110 1111 1114 
1115 1116 1118 1119 1120 1121 1122 1124 1126 
1127 1128 1129 1130 1132 1133 1134 1135 1136 
1137 1140 1142 1143 1145 1147 1148 1150 1151 
1154 1155 1166 1167 1170 1171 1172 1173 1175 
1176 1178 1179 1181 1182 1184 1185 1186 1187 
1188 1189 1190 1191 1192 1193 1194 1195 1196 
1197 1198 1199 1200 1201 1203 1205 1206 1207 
1208 1209 1210 1211 1212 1213 1214 1215 1216 
1217 1218 1219 1220 1222 1223 1224 1225 1226 
1227 1228 1229 1230 1232 1233 1234 1235 1237 
1238 1239 1240 1241 1242 1243 1244 1245 1246 
1247 1248 1249 1250 1251 1252 1253 1254 1255 
1256 1257 
