# vtk DataFile Version 5.1
vtk output
ASCII
DATASET UNSTRUCTURED_GRID
POINTS 92 float
2.63969 0.00598991 -0.0847906 2.63969 0.00570729 -0.0850457 2.63969 0.00797963 -0.0819781 
2.63969 0.00744343 -0.0830005 2.63969 0.00724675 -0.0833071 2.63969 0.00677596 -0.083944 
2.63969 0.00827256 -0.0812238 2.63969 0.00863344 -0.0797157 2.63969 0.00837614 -0.0808937 
2.63969 0.00340953 -0.0864756 2.63969 0.00306558 -0.0866128 2.63969 0.00155317 -0.0870285 
2.63969 0.000818512 -0.0871287 2.63969 0.00268213 -0.0867462 2.63969 0.00196029 -0.0869451 
2.63969 0.00509918 -0.0855256 2.63969 0.00411807 -0.0861369 2.63969 0.00376346 -0.0863162 
2.63969 0.00627147 -0.0845128 2.63969 8.61851e-06 -0.0871664 2.63969 0.00868896 -0.0792514 
2.63969 0.00276629 -0.0701795 2.63969 0.00342793 -0.0704304 2.63969 0.00445977 -0.0709538 
2.63969 0.00524064 -0.0714765 2.63969 0.00541025 -0.071607 2.63969 0.00626876 -0.0723826 
2.63969 0.00363598 -0.0705223 2.63969 0.00186494 -0.0699316 2.63969 0.00233875 -0.0700489 
2.63969 0.000476088 -0.0697442 2.63969 0.00120903 -0.0698148 2.63969 8.61851e-06 -0.0697317 
2.63969 0.00823568 -0.0755668 2.63969 0.00843888 -0.0762307 2.63969 0.00859114 -0.0769223 
2.63969 0.00865801 -0.077363 2.63969 0.00870536 -0.0778501 2.63969 0.00872566 -0.078518 
2.63969 0.00787968 -0.0747024 2.63969 0.00807091 -0.0751338 2.63969 0.00660532 -0.0727504 
2.63969 0.00692035 -0.0731369 2.63969 0.00756274 -0.0740986 2.63969 -0.00569005 -0.0850457 
2.63969 -0.00597268 -0.0847906 2.63969 -0.000801275 -0.0871287 2.63969 -0.00763291 -0.0826441 
2.63969 -0.00796239 -0.0819781 2.63969 -0.00675873 -0.083944 2.63969 -0.0074262 -0.0830005 
2.63969 -0.00625423 -0.0845128 2.63969 -0.00651794 -0.0842279 2.63969 -0.00825532 -0.0812238 
2.63969 -0.0083589 -0.0808937 2.63969 -0.00153594 -0.0870285 2.63969 -0.00194305 -0.0869451 
2.63969 -0.00266489 -0.0867462 2.63969 -0.00304834 -0.0866128 2.63969 -0.00374623 -0.0863162 
2.63969 -0.00410083 -0.0861369 2.63969 -0.00339229 -0.0864756 2.63969 -0.00508194 -0.0855256 
2.63969 -0.00443107 -0.0859511 2.63969 -0.0086162 -0.0797157 2.63969 -0.00658808 -0.0727504 
2.63969 -0.00625152 -0.0723826 2.63969 -0.00593999 -0.0720768 2.63969 -0.00539302 -0.071607 
2.63969 -0.00444253 -0.0709538 2.63969 -0.00341069 -0.0704304 2.63969 -0.0018477 -0.0699316 
2.63969 -0.00119179 -0.0698148 2.63969 -0.00232152 -0.0700489 2.63969 -0.00274906 -0.0701795 
2.63969 -0.00868812 -0.0778501 2.63969 -0.00864078 -0.077363 2.63969 -0.00857391 -0.0769223 
2.63969 -0.00867173 -0.0792514 2.63969 -0.00870842 -0.078518 2.63969 -0.00842165 -0.0762307 
2.63969 -0.00765023 -0.0742858 2.63969 -0.0075455 -0.0740986 2.63969 -0.00690312 -0.0731369 
2.63969 -0.00716044 -0.0734895 2.63969 -0.00786244 -0.0747024 2.63969 -0.00821844 -0.0755668 
2.63969 -0.00805368 -0.0751338 2.63969 -0.000458851 -0.0697442 2.63969 -0.0052234 -0.0714765 
2.63969 -0.00597807 -0.0847855 2.63969 0.00599531 -0.0847855 
METADATA
INFORMATION 2
NAME L2_NORM_RANGE LOCATION vtkDataArray
DATA 2 2.64061 2.64113 
NAME L2_NORM_FINITE_RANGE LOCATION vtkDataArray
DATA 2 2.64061 2.64113 

CELLS 95 188
OFFSETS vtktypeint64
0 2 4 6 8 10 12 14 16 
18 20 22 24 26 28 30 32 34 
36 38 40 42 44 46 48 50 52 
54 56 58 60 62 64 66 68 70 
72 74 76 78 80 82 84 86 88 
90 92 94 96 98 100 102 104 106 
108 110 112 114 116 118 120 122 124 
126 128 130 132 134 136 138 140 142 
144 146 148 150 152 154 156 158 160 
162 164 166 168 170 172 174 176 178 
180 182 184 186 188 
CONNECTIVITY vtktypeint64
0 1 2 3 4 5 6 2 7 
8 9 10 11 12 13 14 15 16 
1 15 17 9 16 17 10 13 14 
11 8 6 3 4 18 0 5 18 
12 19 20 7 21 22 23 24 25 
26 24 25 27 23 28 29 30 31 
32 30 33 34 35 36 37 38 39 
40 40 33 41 42 42 43 43 39 
34 35 38 20 36 37 29 21 31 
28 22 27 26 41 44 45 19 46 
47 48 49 50 51 52 45 51 52 
49 53 54 55 56 57 58 59 60 
61 59 62 44 60 63 63 62 56 
57 46 55 58 61 54 64 48 53 
50 47 65 66 67 68 69 70 71 
72 73 71 74 73 75 76 76 77 
78 79 77 80 81 82 83 65 82 
84 84 83 85 81 86 87 87 85 
79 75 80 86 88 32 72 88 68 
89 66 67 89 69 70 74 64 78 
90 45 51 90 0 91 91 18 
CELL_TYPES 94
3
3
3
3
3
3
3
3
3
3
3
3
3
3
3
3
3
3
3
3
3
3
3
3
3
3
3
3
3
3
3
3
3
3
3
3
3
3
3
3
3
3
3
3
3
3
3
3
3
3
3
3
3
3
3
3
3
3
3
3
3
3
3
3
3
3
3
3
3
3
3
3
3
3
3
3
3
3
3
3
3
3
3
3
3
3
3
3
3
3
3
3
3
3

CELL_DATA 94
SCALARS STLSolidLabeling float
LOOKUP_TABLE default
1 1 1 1 1 1 1 1 1 
1 1 1 1 1 1 1 1 1 
1 1 1 1 1 1 1 1 1 
1 1 1 1 1 1 1 1 1 
1 1 1 1 1 1 1 1 1 
1 1 1 1 1 1 1 1 1 
1 1 1 1 1 1 1 1 1 
1 1 1 1 1 1 1 1 1 
1 1 1 1 1 1 1 1 1 
1 1 1 1 1 1 1 1 1 
2 2 2 2 
FIELD FieldData 1
vtkOriginalCellIds 1 94 vtkIdType
959 960 961 962 963 964 965 966 967 
968 969 970 971 972 973 974 975 976 
977 978 981 982 983 984 985 986 987 
988 989 990 991 992 993 994 995 996 
997 998 999 1000 1001 1002 1010 1011 1012 
1013 1014 1015 1016 1017 1018 1019 1020 1021 
1022 1023 1024 1025 1026 1027 1028 1029 1030 
1031 1032 1033 1034 1035 1036 1037 1038 1039 
1040 1041 1042 1043 1044 1045 1046 1047 1048 
1049 1050 1051 1052 1053 1054 1055 1056 1057 
1277 1278 1279 1280 
POINT_DATA 92
FIELD FieldData 1
vtkOriginalPointIds 1 92 vtkIdType
852 853 854 855 856 857 858 859 860 
861 862 863 864 865 866 867 868 869 
870 871 872 877 878 879 880 881 882 
883 884 885 886 887 888 889 890 891 
892 893 894 895 896 897 898 899 905 
906 907 908 909 910 911 912 913 914 
915 916 917 918 919 920 921 922 923 
924 925 926 927 928 929 930 931 932 
933 934 935 936 937 938 939 940 941 
942 943 944 945 946 947 948 949 950 
1142 1143 
