# vtk DataFile Version 5.1
vtk output
ASCII
DATASET UNSTRUCTURED_GRID
POINTS 244 float
2.63214 0 -0.0165336 2.63221 0 -0.0165046 2.63084 0 -0.0170695 
2.63061 0 -0.0171714 2.63062 0 -0.0171657 2.62957 0 -0.0176295 
2.62958 0 -0.0176251 2.6289 0 -0.0179367 2.62892 0 -0.0179279 
2.62881 0 -0.0179782 2.62824 0 -0.0182484 2.6271 0 -0.0188193 
2.62694 0 -0.0188975 2.62568 0 -0.0195707 2.62553 0 -0.0196515 
2.62535 0 -0.0197494 2.62537 0 -0.0197394 2.62446 0 -0.0202614 
2.62445 0 -0.0202645 2.62386 0 -0.0206171 2.62386 0 -0.0206146 
2.62327 0 -0.0209738 2.62327 0 -0.0209772 2.62269 0 -0.02134 
2.62268 0 -0.0213449 2.62212 0 -0.0217121 2.62211 0 -0.0217206 
2.6216 0 -0.0220597 2.62162 0 -0.022044 2.62098 0 -0.0224899 
2.62097 0 -0.0224936 2.62053 0 -0.0228057 2.62053 0 -0.0228029 
2.61989 0 -0.0232762 2.61988 0 -0.0232797 2.61885 0 -0.0240732 
2.61883 0 -0.0240826 2.61784 0 -0.0248937 2.61763 0 -0.0250681 
2.61682 0 -0.0257635 2.61681 0 -0.025775 2.61624 0 -0.026286 
2.61587 0 -0.0266311 2.61584 0 -0.0266545 2.61494 0 -0.0275338 
2.61492 0 -0.0275468 2.61403 0 -0.0284671 2.61405 0 -0.0284431 
2.61329 0 -0.0292686 2.61333 0 -0.0292272 2.61292 0 -0.0296863 
2.61297 0 -0.029639 2.61085 0 -0.0322928 2.61074 0 -0.0323574 
2.61026 0 -0.0331057 2.61018 0 -0.033224 2.60939 0 -0.0344471 
2.60922 0 -0.0347763 2.60789 0 -0.0372826 2.60767 0 -0.0378148 
2.60683 0 -0.0399798 2.60668 0 -0.0404893 2.60611 0 -0.0427419 
2.60604 0 -0.0431068 2.60607 0 -0.0429234 2.60585 0 -0.0443225 
2.6057 0 -0.0467986 2.60567 0 -0.0471401 2.6127 0 -0.0637947 
2.61272 1.69407e-21 -0.0638095 2.60946 0 -0.0599184 2.60939 0 -0.0598186 
2.61097 0 -0.0619721 2.61102 0 -0.0620267 2.6148 1.69407e-21 -0.0654964 
2.61481 0 -0.0655039 2.61701 0 -0.0668757 2.61721 0 -0.0669796 
2.61793 0 -0.0673271 2.61794 0 -0.0673295 2.6183 0 -0.0674876 
2.61848 0 -0.0675629 2.61871 0 -0.067647 2.61867 0 -0.0676352 
2.60715 0 -0.0552073 2.60706 0 -0.0549355 2.6083 0 -0.0578903 
2.60828 0 -0.0578516 2.60623 0 -0.0520833 2.60595 0 -0.0506085 
2.60595 0 -0.0505589 2.60567 0 -0.0474116 2.60571 0 -0.0482195 
2.60567 0 -0.0473761 2.6057 0 -0.0477154 2.60585 0 -0.049941 
2.6058 0 -0.0494397 2.60579 0 -0.0493854 2.56008 0 -0.122789 
2.5601 0 -0.122784 2.55322 0 -0.124169 2.56692 0 -0.121188 
2.56697 0 -0.121175 2.5804 0 -0.117193 2.58041 0 -0.117189 
2.5739 0 -0.119283 2.57393 0 -0.119274 2.58695 0 -0.114715 
2.58696 0 -0.11471 2.58935 0 -0.113704 2.58936 0 -0.113699 
2.59019 0 -0.113334 2.59022 0 -0.113321 2.59649 0 -0.110317 
2.59652 0 -0.110303 2.59959 0 -0.108672 2.59962 0 -0.108657 
2.6057 0 -0.105133 2.60567 0 -0.105149 2.60265 0 -0.106947 
2.60268 0 -0.106931 2.53108 0 -0.126598 2.55077 0 -0.124599 
2.55072 0 -0.124606 2.59338 0 -0.111864 2.62151 0 -0.0936942 
2.63967 0 -0.0871655 2.63847 0 -0.0871684 2.63845 0 -0.0871691 
2.6279 0 -0.0899423 2.62789 0 -0.0899475 2.63482 0 -0.0875811 
2.63393 0 -0.087773 2.63244 0 -0.0881681 2.63248 0 -0.0881604 
2.63674 0 -0.0872901 2.63678 0 -0.0872855 2.63093 0 -0.0886688 
2.63094 0 -0.0886643 2.62571 0 -0.0910711 2.62569 0 -0.0910836 
2.62164 0 -0.0936025 2.62685 0 -0.0904602 2.62683 0 -0.0904697 
2.61378 0 -0.0996106 2.61377 0 -0.0996179 2.60982 0 -0.102483 
2.6098 0 -0.102501 2.60577 0 -0.105091 2.62539 0 -0.069356 
2.62538 0 -0.0693552 2.62643 0 -0.0694779 2.62511 0 -0.0693193 
2.62509 0 -0.069316 2.62907 0 -0.0696691 2.62905 0 -0.0696682 
2.6238 0 -0.06911 2.62377 0 -0.0691057 2.62206 0 -0.0687358 
2.62204 0 -0.0687333 2.62123 0 -0.0685135 2.62119 0 -0.0685035 
2.62058 0 -0.068319 2.62055 0 -0.0683105 2.61995 0 -0.0681105 
2.61992 0 -0.0681008 2.61933 0 -0.0678863 2.6193 0 -0.0678751 
2.63113 0 -0.0697258 2.63121 0 -0.0697259 2.6396 0 -0.0697324 
2.6225 0 -0.068843 2.60591 0 -0.05029 2.6059 0 -0.0502607 
2.60576 0 -0.0490256 2.60573 -8.47033e-22 -0.0485247 2.60574 0 -0.0486445 
2.60577 0 -0.0490982 2.60571 0 -0.0481255 2.60572 0 -0.0482888 
2.6057 0 -0.0476971 2.6363 0 -0.0150064 2.67028 0 -0.00811329 
2.6703 0 -0.00810979 2.66116 0 -0.00947696 2.64202 0 -0.013301 
2.64199 0 -0.0133085 2.63632 0 -0.0150009 2.71983 4.33681e-19 -0.000871996 
2.71987 4.33681e-19 -0.000866629 2.7182 0 -0.00108718 2.71465 0 -0.00155344 
2.72699 0 6.30806e-05 2.72541 0 -0.000143968 2.72184 0 -0.000609822 
2.73736 0 0.00141045 2.73913 0 0.00164134 2.73426 0 0.00100583 
2.7358 0 0.00120686 2.73274 0 0.000808242 2.7291 0 0.000336226 
2.74103 0 0.00189098 2.71269 0 -0.00181079 2.71273 8.67362e-19 -0.00180642 
2.70941 0 -0.00224508 2.70558 0 -0.00275315 2.7056 8.67362e-19 -0.00274986 
2.75576 0 0.00395444 2.75474 0 0.00381097 2.74136 0 0.00192911 
2.74133 0 0.00192491 2.77014 0 0.00597895 2.67031 0 -0.00808852 
2.67052 0 -0.00798136 2.67053 0 -0.00797581 2.67106 0 -0.00782523 
2.67124 0 -0.0077852 2.67086 0 -0.00788026 2.67204 0 -0.00760221 
2.67181 0 -0.00765274 2.6747 0 -0.00710705 2.67423 -4.33681e-19 -0.00719013 
2.67379 0 -0.00726569 2.67278 4.33681e-19 -0.00746009 2.67554 0 -0.00696098 
2.67511 0 -0.00703698 2.68434 -8.67362e-19 -0.00562586 2.68607 0 -0.00538394 
2.68348 0 -0.00575019 2.68171 0 -0.00600548 2.68265 0 -0.00587004 
2.68962 0 -0.00489392 2.68787 -8.67362e-19 -0.00513401 2.6914 0 -0.00465194 
2.69141 0 -0.00465083 2.7039 0 -0.00297706 2.70037 0 -0.00344815 
2.695 0 -0.00416723 2.69848 0 -0.00369913 2.69849 0 -0.00369693 
2.68082 0 -0.00613548 2.67894 0 -0.00642327 2.6773 0 -0.00667439 
2.67637 0 -0.00682578 
METADATA
INFORMATION 2
NAME L2_NORM_RANGE LOCATION vtkDataArray
DATA 2 2.53424 2.77015 
NAME L2_NORM_FINITE_RANGE LOCATION vtkDataArray
DATA 2 2.53424 2.77015 

CELLS 157 312
OFFSETS vtktypeint64
0 2 4 6 8 10 12 14 16 
18 20 22 24 26 28 30 32 34 
36 38 40 42 44 46 48 50 52 
54 56 58 60 62 64 66 68 70 
72 74 76 78 80 82 84 86 88 
90 92 94 96 98 100 102 104 106 
108 110 112 114 116 118 120 122 124 
126 128 130 132 134 136 138 140 142 
144 146 148 150 152 154 156 158 160 
162 164 166 168 170 172 174 176 178 
180 182 184 186 188 190 192 194 196 
198 200 202 204 206 208 210 212 214 
216 218 220 222 224 226 228 230 232 
234 236 238 240 242 244 246 248 250 
252 254 256 258 260 262 264 266 268 
270 272 274 276 278 280 282 284 286 
288 290 292 294 296 298 300 302 304 
306 308 310 312 
CONNECTIVITY vtktypeint64
65 63 61 62 58 59 56 55 54 
55 56 57 58 57 50 52 48 51 
42 41 40 41 38 39 27 29 15 
17 16 14 10 9 7 8 3 6 
2 0 2 4 5 8 10 11 12 
13 18 20 19 21 22 23 24 25 
26 28 28 27 30 32 31 33 34 
35 36 37 43 44 45 47 46 49 
53 54 60 59 60 61 62 64 65 
66 144 125 137 129 134 132 131 132 
131 135 141 140 139 143 146 145 148 
147 117 148 130 142 133 138 136 128 
127 126 151 149 151 155 156 153 171 
157 171 158 162 161 164 163 166 165 
82 167 169 170 154 168 159 160 152 
150 74 69 72 70 68 73 76 75 
78 77 81 83 84 87 88 85 88 
90 89 90 172 89 175 179 173 95 
94 180 177 97 96 95 178 92 176 
174 71 86 80 79 99 101 105 102 
104 107 108 109 124 112 124 113 123 
121 123 122 100 122 116 119 120 118 
114 115 111 110 103 106 100 98 91 
93 67 66 185 184 207 208 209 208 
211 207 1 181 187 186 182 184 243 
224 215 217 223 222 197 199 189 194 
197 198 195 198 191 190 223 218 191 
203 232 227 201 210 243 242 224 225 
212 183 233 231 214 213 196 201 236 
235 188 190 232 231 228 230 220 225 
237 238 236 239 241 242 205 235 206 
204 221 220 226 228 234 237 219 218 
216 215 196 195 193 194 200 199 226 
227 229 240 192 200 192 193 202 204 
229 230 240 241 222 221 
CELL_TYPES 156
3
3
3
3
3
3
3
3
3
3
3
3
3
3
3
3
3
3
3
3
3
3
3
3
3
3
3
3
3
3
3
3
3
3
3
3
3
3
3
3
3
3
3
3
3
3
3
3
3
3
3
3
3
3
3
3
3
3
3
3
3
3
3
3
3
3
3
3
3
3
3
3
3
3
3
3
3
3
3
3
3
3
3
3
3
3
3
3
3
3
3
3
3
3
3
3
3
3
3
3
3
3
3
3
3
3
3
3
3
3
3
3
3
3
3
3
3
3
3
3
3
3
3
3
3
3
3
3
3
3
3
3
3
3
3
3
3
3
3
3
3
3
3
3
3
3
3
3
3
3
3
3
3
3
3
3

CELL_DATA 156
SCALARS STLSolidLabeling float
LOOKUP_TABLE default
1 1 1 1 1 1 1 1 1 
1 1 1 1 1 1 1 1 1 
1 1 1 1 1 1 1 1 1 
1 1 1 1 1 1 1 1 1 
1 1 1 1 1 1 1 1 1 
1 1 1 1 1 1 1 1 1 
1 1 1 1 1 1 1 1 1 
1 1 1 1 1 1 1 1 1 
1 1 1 1 1 1 1 1 1 
1 1 1 1 1 1 1 1 1 
1 1 1 1 1 1 1 1 1 
1 1 1 1 1 1 1 1 1 
1 1 1 1 1 1 1 1 1 
1 1 1 1 1 1 1 1 1 
1 1 1 1 1 1 1 1 1 
1 1 1 1 1 1 1 1 1 
1 1 1 1 1 1 1 1 1 
1 1 1 
FIELD FieldData 1
vtkOriginalCellIds 1 156 vtkIdType
586 588 589 590 591 592 593 594 596 
600 601 603 609 615 616 621 622 624 
626 627 629 631 633 636 637 638 639 
640 641 642 643 644 645 648 649 650 
653 654 655 656 657 658 660 662 663 
664 669 672 674 675 676 679 681 682 
685 688 689 692 693 694 697 698 699 
700 703 705 709 713 716 718 719 720 
723 727 730 731 732 733 734 738 741 
753 756 757 758 760 761 764 770 771 
774 775 777 779 790 791 792 800 801 
802 804 806 809 815 827 1203 1208 1209 
1210 1211 1212 1214 1221 1225 1226 1229 1231 
1232 1233 1234 1237 1238 1241 1242 1243 1244 
1245 1248 1250 1251 1252 1254 1255 1257 1258 
1259 1262 1263 1264 1265 1266 1268 1269 1271 
1272 1273 1275 1277 1278 1279 1280 1281 1282 
1284 1285 1286 
POINT_DATA 244
FIELD FieldData 1
vtkOriginalPointIds 1 244 vtkIdType
591 592 593 594 595 596 597 598 599 
600 602 605 606 608 609 610 611 612 
613 614 615 616 617 618 619 620 621 
622 623 624 625 626 627 628 629 630 
631 632 634 636 637 638 639 640 641 
642 643 644 645 646 647 648 649 651 
652 653 654 655 656 657 658 659 660 
661 662 663 664 665 679 680 681 682 
683 684 685 686 688 690 692 693 694 
696 697 700 701 702 703 704 705 706 
707 708 710 711 713 715 716 717 718 
719 720 721 723 724 725 726 727 728 
729 730 731 732 733 734 735 736 737 
738 739 740 741 755 756 757 758 759 
762 763 764 765 766 767 768 769 770 
771 772 773 774 775 776 778 779 780 
782 783 784 785 787 788 789 790 791 
793 794 795 796 797 798 799 800 802 
803 804 805 806 807 808 850 851 858 
863 864 865 866 867 868 870 871 877 
884 914 1259 1260 1261 1262 1264 1265 1266 
1267 1268 1269 1270 1271 1272 1273 1274 1275 
1276 1277 1278 1279 1280 1281 1282 1283 1284 
1285 1286 1287 1288 1289 1299 1308 1309 1311 
1312 1313 1314 1315 1317 1318 1319 1320 1321 
1322 1323 1324 1325 1326 1327 1328 1329 1330 
1331 1332 1333 1334 1335 1336 1337 1338 1339 
1340 
