# vtk DataFile Version 5.1
vtk output
ASCII
DATASET UNSTRUCTURED_GRID
POINTS 55 float
2.77014 -0.188988 0.0752382 2.77014 0.189006 0.0752382 2.77014 0.174884 0.0402981 
2.77014 0.172574 0.0381893 2.77014 0.15787 0.0286044 2.77014 0.150088 0.0251785 
2.77014 0.167344 0.0341474 2.77014 0.166516 0.0335834 2.77014 0.163241 0.031519 
2.77014 0.145815 0.0236084 2.77014 0.140876 0.0220051 2.77014 0.184615 0.0530376 
2.77014 0.183914 0.0517379 2.77014 0.186031 0.0561186 2.77014 0.187944 0.0622646 
2.77014 0.187574 0.0607363 2.77014 0.188513 0.0655102 2.77014 0.188713 0.0672949 
2.77014 0.186622 0.0576658 2.77014 0.182035 0.0487116 2.77014 0.177933 0.0434708 
2.77014 0.178246 0.043825 2.77014 0.17124 0.0370693 2.77014 -0.171222 0.0370693 
2.77014 -0.172557 0.0381893 2.77014 -0.188696 0.0672949 2.77014 -0.163224 0.031519 
2.77014 -0.166499 0.0335834 2.77014 -0.167327 0.0341474 2.77014 -0.145798 0.0236084 
2.77014 -0.15007 0.0251785 2.77014 -0.140859 0.0220051 2.77014 -0.183897 0.0517379 
2.77014 -0.184598 0.0530376 2.77014 -0.187556 0.0607363 2.77014 -0.187927 0.0622646 
2.77014 -0.186014 0.0561186 2.77014 -0.186604 0.0576658 2.77014 -0.178228 0.043825 
2.77014 -0.182018 0.0487116 2.77014 -0.174867 0.0402981 2.77014 -0.177916 0.0434708 
2.77014 -0.188496 0.0655102 2.77014 -0.157853 0.0286044 2.77014 0.138301 0.0212452 
2.77014 0.1227 0.0175118 2.77014 0.105848 0.0146922 2.77014 0.0338948 0.00735863 
2.77014 8.61851e-06 0.0059786 2.77014 0.070507 0.0104179 2.77014 -0.0338776 0.00735863 
2.77014 -0.0704898 0.0104179 2.77014 -0.122683 0.0175118 2.77014 -0.138284 0.0212452 
2.77014 -0.105831 0.0146922 
METADATA
INFORMATION 2
NAME L2_NORM_RANGE LOCATION vtkDataArray
DATA 2 2.77015 2.7776 
NAME L2_NORM_FINITE_RANGE LOCATION vtkDataArray
DATA 2 2.77015 2.7776 

CELLS 55 108
OFFSETS vtktypeint64
0 2 4 6 8 10 12 14 16 
18 20 22 24 26 28 30 32 34 
36 38 40 42 44 46 48 50 52 
54 56 58 60 62 64 66 68 70 
72 74 76 78 80 82 84 86 88 
90 92 94 96 98 100 102 104 106 
108 
CONNECTIVITY vtktypeint64
2 3 4 5 6 7 8 4 9 
10 5 9 11 12 13 11 14 15 
16 14 17 16 18 13 15 18 12 
19 20 2 21 20 19 21 22 6 
7 8 1 17 3 22 23 24 25 
0 26 27 28 23 29 30 31 29 
32 33 34 35 36 37 38 39 40 
41 41 38 39 32 37 34 42 25 
35 42 33 36 43 26 27 28 30 
43 24 40 44 45 10 44 45 46 
47 48 46 49 49 47 50 51 52 
53 51 54 48 50 54 52 53 31 

CELL_TYPES 54
3
3
3
3
3
3
3
3
3
3
3
3
3
3
3
3
3
3
3
3
3
3
3
3
3
3
3
3
3
3
3
3
3
3
3
3
3
3
3
3
3
3
3
3
3
3
3
3
3
3
3
3
3
3

CELL_DATA 54
SCALARS STLSolidLabeling float
LOOKUP_TABLE default
1 1 1 1 1 1 1 1 1 
1 1 1 1 1 1 1 1 1 
1 1 1 1 1 1 1 1 1 
1 1 1 1 1 1 1 1 1 
1 1 1 1 1 1 1 1 1 
1 1 1 1 1 1 1 1 1 

FIELD FieldData 1
vtkOriginalCellIds 1 54 vtkIdType
703 704 705 706 707 708 709 710 711 
712 713 714 715 716 717 718 719 720 
721 722 723 1099 1100 1101 1102 1103 1104 
1105 1106 1107 1108 1109 1110 1111 1112 1113 
1114 1115 1116 1117 1118 1119 1261 1262 1263 
1265 1268 1269 1270 1271 1272 1274 1275 1276 

POINT_DATA 55
FIELD FieldData 1
vtkOriginalPointIds 1 55 vtkIdType
262 315 706 707 708 709 710 711 712 
713 714 715 716 717 718 719 720 721 
722 723 724 725 726 981 982 983 984 
985 986 987 988 989 990 991 992 993 
994 995 996 997 998 999 1000 1001 1125 
1126 1127 1130 1131 1135 1136 1137 1138 1139 
1140 
