/*--------------------------------*- C++ -*----------------------------------*\
| =========                 |                                                 |
| \\      /  F ield         | OpenFOAM: The Open Source CFD Toolbox           |
|  \\    /   O peration     | Version:  2312                                  |
|   \\  /    A nd           | Website:  www.openfoam.com                      |
|    \\/     M anipulation  |                                                 |
\*---------------------------------------------------------------------------*/
FoamFile
{
    version     2.0;
    format      ascii;
    arch        "LSB;label=32;scalar=64";
    note        "written 2024-05-29T09:40:52";
    class       featureEdgeMesh;
    location    ;
    object      sternLine.eMesh;
}
// * * * * * * * * * * * * * * * * * * * * * * * * * * * * * * * * * * * * * //


// points:

55
(
(2.77014 -0.188988 0.0752382)
(2.77014 0.189006 0.0752382)
(2.77014 0.174884 0.0402981)
(2.77014 0.172574 0.0381893)
(2.77014 0.15787 0.0286044)
(2.77014 0.150088 0.0251785)
(2.77014 0.167344 0.0341474)
(2.77014 0.166516 0.0335834)
(2.77014 0.163241 0.031519)
(2.77014 0.145815 0.0236084)
(2.77014 0.140876 0.0220051)
(2.77014 0.184615 0.0530376)
(2.77014 0.183914 0.0517379)
(2.77014 0.186031 0.0561186)
(2.77014 0.187944 0.0622646)
(2.77014 0.187574 0.0607363)
(2.77014 0.188513 0.0655102)
(2.77014 0.188713 0.0672949)
(2.77014 0.186622 0.0576658)
(2.77014 0.182035 0.0487116)
(2.77014 0.177933 0.0434708)
(2.77014 0.178246 0.043825)
(2.77014 0.17124 0.0370693)
(2.77014 -0.171222 0.0370693)
(2.77014 -0.172557 0.0381893)
(2.77014 -0.188696 0.0672949)
(2.77014 -0.163224 0.031519)
(2.77014 -0.166499 0.0335834)
(2.77014 -0.167327 0.0341474)
(2.77014 -0.145798 0.0236084)
(2.77014 -0.15007 0.0251785)
(2.77014 -0.140859 0.0220051)
(2.77014 -0.183897 0.0517379)
(2.77014 -0.184598 0.0530376)
(2.77014 -0.187556 0.0607363)
(2.77014 -0.187927 0.0622646)
(2.77014 -0.186014 0.0561186)
(2.77014 -0.186604 0.0576658)
(2.77014 -0.178228 0.043825)
(2.77014 -0.182018 0.0487116)
(2.77014 -0.174867 0.0402981)
(2.77014 -0.177916 0.0434708)
(2.77014 -0.188496 0.0655102)
(2.77014 -0.157853 0.0286044)
(2.77014 0.138301 0.0212452)
(2.77014 0.1227 0.0175118)
(2.77014 0.105848 0.0146922)
(2.77014 0.0338948 0.00735863)
(2.77014 8.61851e-06 0.0059786)
(2.77014 0.070507 0.0104179)
(2.77014 -0.0338776 0.00735863)
(2.77014 -0.0704898 0.0104179)
(2.77014 -0.122683 0.0175118)
(2.77014 -0.138284 0.0212452)
(2.77014 -0.105831 0.0146922)
)


// edges:

54
(
(2 3)
(4 5)
(6 7)
(8 4)
(9 10)
(5 9)
(11 12)
(13 11)
(14 15)
(16 14)
(17 16)
(18 13)
(15 18)
(12 19)
(20 2)
(21 20)
(19 21)
(22 6)
(7 8)
(1 17)
(3 22)
(23 24)
(25 0)
(26 27)
(28 23)
(29 30)
(31 29)
(32 33)
(34 35)
(36 37)
(38 39)
(40 41)
(41 38)
(39 32)
(37 34)
(42 25)
(35 42)
(33 36)
(43 26)
(27 28)
(30 43)
(24 40)
(44 45)
(10 44)
(45 46)
(47 48)
(46 49)
(49 47)
(50 51)
(52 53)
(51 54)
(48 50)
(54 52)
(53 31)
)

// * * * * * * * * * * * * * * * * * * * * * * * * * * * * * * * * * * * * * //
